 &FCI NORB=2,NELEC=2,MS2=0,
  ORBSYM= 1,1,
  ISYM=1
 &END
 1.0000000000000000e+00    1    1    1    1
 1.0000000000000000e+00    2    2    2    2
-1.0000000000000000e+00    2    1    0    0
