 &FCI NORB=0,NELEC=0,MS2=0,
  ORBSYM= ,
  ISYM=1
 &END
 0.0000000000000000e+00    0    0    0    0
