 &FCI NORB=6,NELEC=6,MS2=0,
  ORBSYM= 1,1,1,1,1,1,
  ISYM=1
 &END
-4.1399999999999998e-01    1    1    0    0
-5.3300000000000000e-02    2    1    0    0
-4.1399999999999998e-01    2    2    0    0
-5.3300000000000000e-02    3    2    0    0
-4.1399999999999998e-01    3    3    0    0
-5.3300000000000000e-02    4    3    0    0
-4.1399999999999998e-01    4    4    0    0
-5.3300000000000000e-02    5    4    0    0
-4.1399999999999998e-01    5    5    0    0
-5.3300000000000000e-02    6    1    0    0
-5.3300000000000000e-02    6    5    0    0
-4.1399999999999998e-01    6    6    0    0
 0.0000000000000000e+00    0    0    0    0
