 &FCI NORB=6,NELEC=6,MS2=0,
  ORBSYM= 1,1,1,1,1,1,
  ISYM=1
 &END
 2.5000000000000000e-01    2    2    1    1
 2.5000000000000000e-01    3    3    2    2
 2.5000000000000000e-01    4    4    3    3
 2.5000000000000000e-01    5    5    4    4
 2.5000000000000000e-01    6    6    1    1
 2.5000000000000000e-01    6    6    5    5
-4.0000000000000002e-01    1    1    0    0
-4.0000000000000002e-01    2    2    0    0
-4.0000000000000002e-01    3    3    0    0
-4.0000000000000002e-01    4    4    0    0
-4.0000000000000002e-01    5    5    0    0
-4.0000000000000002e-01    6    6    0    0
 9.0000000000000002e-01    0    0    0    0
