 &FCI NORB=6,NELEC=6,MS2=0,
  ORBSYM= 1,1,1,1,1,1,
  ISYM=1
 &END
 1.0000000000000000e+00    1    1    1    1
 1.0000000000000000e+00    2    2    2    2
 1.0000000000000000e+00    3    3    3    3
 1.0000000000000000e+00    4    4    4    4
 1.0000000000000000e+00    5    5    5    5
 1.0000000000000000e+00    6    6    6    6
 5.0000000000000000e-01    1    1    0    0
-1.0000000000000000e+00    2    1    0    0
 5.0000000000000000e-01    2    2    0    0
-1.0000000000000000e+00    3    2    0    0
 5.0000000000000000e-01    3    3    0    0
-1.0000000000000000e+00    4    3    0    0
 5.0000000000000000e-01    4    4    0    0
-1.0000000000000000e+00    5    4    0    0
 5.0000000000000000e-01    5    5    0    0
-1.0000000000000000e+00    6    1    0    0
-1.0000000000000000e+00    6    5    0    0
 5.0000000000000000e-01    6    6    0    0
 0.0000000000000000e+00    0    0    0    0
