 &FCI NORB=6,NELEC=6,MS2=0,
  ORBSYM= 1,1,1,1,1,1,
  ISYM=1
 &END
 5.0000000000000000e-01    1    2    1    2
 5.0000000000000000e-01    1    6    1    6
 5.0000000000000000e-01    2    1    2    1
 5.0000000000000000e-01    2    3    2    3
 5.0000000000000000e-01    3    2    3    2
 5.0000000000000000e-01    3    4    3    4
 5.0000000000000000e-01    4    3    4    3
 5.0000000000000000e-01    4    5    4    5
 5.0000000000000000e-01    5    4    5    4
 5.0000000000000000e-01    5    6    5    6
 5.0000000000000000e-01    6    1    6    1
 5.0000000000000000e-01    6    5    6    5
 1.0000000000000001e-01    1    1    0    0
 1.0000000000000001e-01    2    2    0    0
 1.0000000000000001e-01    3    3    0    0
 1.0000000000000001e-01    4    4    0    0
 1.0000000000000001e-01    5    5    0    0
 1.0000000000000001e-01    6    6    0    0
-5.9999999999999998e-01    0    0    0    0
